3
# ORCA AIMD Position Step 0, t=0.00 fs, E_Pot=-76.33756382 Hartree, Unit is Angstrom
 O     -4.5402100203      0.7843900035      0.0930700004
 H     -3.6405900163      0.3822400017     -0.0143200001
 H     -4.6346300208      1.3966500063     -0.6788000030
3
# ORCA AIMD Position Step 1, t=0.50 fs, E_Pot=-76.33772112 Hartree, Unit is Angstrom
 O     -4.5408789158      0.7807946021      0.0895765377
 H     -3.6436859413      0.3894434068     -0.0072808217
 H     -4.6308652002      1.3930420026     -0.6823457187
3
# ORCA AIMD Position Step 2, t=1.00 fs, E_Pot=-76.33781697 Hartree, Unit is Angstrom
 O     -4.5415440839      0.7772264500      0.0860467745
 H     -3.6474447469      0.3972463074     -0.0006032835
 H     -4.6264932206      1.3884204970     -0.6849356601
3
# ORCA AIMD Position Step 3, t=1.50 fs, E_Pot=-76.33781671 Hartree, Unit is Angstrom
 O     -4.5422535950      0.7737038872      0.0824929618
 H     -3.6510254816      0.4052507293      0.0056641296
 H     -4.6215870779      1.3829191281     -0.6866897948
3
# ORCA AIMD Position Step 4, t=2.00 fs, E_Pot=-76.33773338 Hartree, Unit is Angstrom
 O     -4.5430554013      0.7702374001      0.0789304311
 H     -3.6535723551      0.4130650923      0.0115065107
 H     -4.6162418947      1.3767607408     -0.6878387844
3
# ORCA AIMD Position Step 5, t=2.50 fs, E_Pot=-76.33762361 Hartree, Unit is Angstrom
 O     -4.5439904234      0.7668279208      0.0753764404
 H     -3.6543326505      0.4203550785      0.0169460362
 H     -4.6105657544      1.3702387209     -0.6887041218
3
# ORCA AIMD Position Step 6, t=3.00 fs, E_Pot=-76.33755748 Hartree, Unit is Angstrom
 O     -4.5450852546      0.7634665945      0.0718493383
 H     -3.6527786959      0.4268896157      0.0220394601
 H     -4.6046705470      1.3636907899     -0.6896667247
3
# ORCA AIMD Position Step 7, t=3.50 fs, E_Pot=-76.33757837 Hartree, Unit is Angstrom
 O     -4.5463462907      0.7601363890      0.0683676714
 H     -3.6487057145      0.4325717618      0.0268699750
 H     -4.5986632317      1.3574643642     -0.6911234573
3
# ORCA AIMD Position Step 8, t=4.00 fs, E_Pot=-76.33767908 Hartree, Unit is Angstrom
 O     -4.5477572705      0.7568152950      0.0649486070
 H     -3.6422759694      0.4374441370      0.0315330595
 H     -4.5926380631      1.3518746297     -0.6934340408
3
# ORCA AIMD Position Step 9, t=4.50 fs, E_Pot=-76.33780904 Hartree, Unit is Angstrom
 O     -4.5492812587      0.7534803173      0.0616050139
 H     -3.6339940874      0.4416673536      0.0361207158
 H     -4.5866706271      1.3471583547     -0.6968632528
3
# ORCA AIMD Position Step 10, t=5.00 fs, E_Pot=-76.33790466 Hartree, Unit is Angstrom
 O     -4.5508670289      0.7501112386      0.0583421992
 H     -3.6246127624      0.4454792110      0.0407099572
 H     -4.5808142759      1.3434363636     -0.7015356756
3
# ORCA AIMD Position Step 11, t=5.50 fs, E_Pot=-76.33792041 Hartree, Unit is Angstrom
 O     -4.5524573633      0.7466936474      0.0551554873
 H     -3.6150040210      0.4491491668      0.0453586225
 H     -4.5751005932      1.3406924130     -0.7074111545
3
# ORCA AIMD Position Step 12, t=6.00 fs, E_Pot=-76.33784531 Hartree, Unit is Angstrom
 O     -4.5539967199      0.7432207820      0.0520299730
 H     -3.6060332785      0.4529338332      0.0501039749
 H     -4.5695455775      1.3387780025     -0.7142896123
3
# ORCA AIMD Position Step 13, t=6.50 fs, E_Pot=-76.33770282 Hartree, Unit is Angstrom
 O     -4.5554368953      0.7396937504      0.0489421570
 H     -3.5984611363      0.4570452426      0.0549660184
 H     -4.5641583065      1.3374388336     -0.7218420476
3
# ORCA AIMD Position Step 14, t=7.00 fs, E_Pot=-76.33753952 Hartree, Unit is Angstrom
 O     -4.5567404597      0.7361205046      0.0458629377
 H     -3.5928793628      0.4616326339      0.0599534365
 H     -4.5589493860      1.3363549155     -0.7296585237
3
# ORCA AIMD Position Step 15, t=7.50 fs, E_Pot=-76.33740836 Hartree, Unit is Angstrom
 O     -4.5578824267      0.7325143214      0.0427613244
 H     -3.5896754950      0.4667745589      0.0650701207
 H     -4.5539375395      1.3351849345     -0.7373015970
3
# ORCA AIMD Position Step 16, t=8.00 fs, E_Pot=-76.33735081 Hartree, Unit is Angstrom
 O     -4.5588508989      0.7288923909      0.0396082540
 H     -3.5890154598      0.4724775158      0.0703213777
 H     -4.5491535030      1.3336075000     -0.7443561493
3
# ORCA AIMD Position Step 17, t=8.50 fs, E_Pot=-76.33738219 Hartree, Unit is Angstrom
 O     -4.5596473084      0.7252745091      0.0363798497
 H     -3.5908359263      0.4786790783      0.0757202544
 H     -4.5446407820      1.3313552096     -0.7504714298
3
# ORCA AIMD Position Step 18, t=9.00 fs, E_Pot=-76.33748494 Hartree, Unit is Angstrom
 O     -4.5602863501      0.7216815700      0.0330595432
 H     -3.5948454122      0.4852522253      0.0812915119
 H     -4.5404545147      1.3282401553     -0.7553930071
3
# ORCA AIMD Position Step 19, t=9.50 fs, E_Pot=-76.33761344 Hartree, Unit is Angstrom
 O     -4.5607957452      0.7181331539      0.0296388727
 H     -3.6005349548      0.4920160089      0.0870763929
 H     -4.5366562966      1.3241721578     -0.7589892861
3
# ORCA AIMD Position Step 20, t=10.00 fs, E_Pot=-76.33771186 Hartree, Unit is Angstrom
 O     -4.5612145967      0.7146448848      0.0261168494
 H     -3.6072139853      0.4987524305      0.0931365649
 H     -4.5333079039      1.3191650218     -0.7612636922
3
# ORCA AIMD Position Step 21, t=10.50 fs, E_Pot=-76.33773910 Hartree, Unit is Angstrom
 O     -4.5615902619      0.7112257859      0.0224988743
 H     -3.6140711849      0.5052320602      0.0995585710
 H     -4.5304633713      1.3133352074     -0.7623591028
3
# ORCA AIMD Position Step 22, t=11.00 fs, E_Pot=-76.33769010 Hartree, Unit is Angstrom
 O     -4.5619731826      0.7078766931      0.0187958588
 H     -3.6202639394      0.5112390882      0.1064480667
 H     -4.5281633970      1.3068922749     -0.7625475441
3
# ORCA AIMD Position Step 23, t=11.50 fs, E_Pot=-76.33760027 Hartree, Unit is Angstrom
 O     -4.5624102564      0.7045896868      0.0150236904
 H     -3.6250285937      0.5165977126      0.1139171896
 H     -4.5264302082      1.3001219546     -0.7622086398
3
# ORCA AIMD Position Step 24, t=12.00 fs, E_Pot=-76.33752722 Hartree, Unit is Angstrom
 O     -4.5629376614      0.7013488328      0.0112030484
 H     -3.6277964864      0.5211955656      0.1220643831
 H     -4.5252634325      1.2933616559     -0.7617961369
3
# ORCA AIMD Position Step 25, t=12.50 fs, E_Pot=-76.33751863 Hartree, Unit is Angstrom
 O     -4.5635746689      0.6981323836      0.0073591571
 H     -3.6282916070      0.5249995764      0.1309494119
 H     -4.5246373322      1.2869674352     -0.7617917198
3
# ORCA AIMD Position Step 26, t=13.00 fs, E_Pot=-76.33758604 Hartree, Unit is Angstrom
 O     -4.5643202232      0.6949161127      0.0035205707
 H     -3.6265828583      0.5280607175      0.1405701797
 H     -4.5244998995      1.2812721114     -0.7626472171
3
# ORCA AIMD Position Step 27, t=13.50 fs, E_Pot=-76.33770101 Hartree, Unit is Angstrom
 O     -4.5651535569      0.6916770407     -0.0002836221
 H     -3.6230720378      0.5305036320      0.1508465383
 H     -4.5247745870      1.2765392533     -0.7647213631
3
# ORCA AIMD Position Step 28, t=14.00 fs, E_Pot=-76.33781277 Hartree, Unit is Angstrom
 O     -4.5660385414      0.6883968132     -0.0040282905
 H     -3.6184214669      0.5325060345      0.1616209459
 H     -4.5253658245      1.2729183836     -0.7682205906
3
# ORCA AIMD Position Step 29, t=14.50 fs, E_Pot=-76.33787395 Hartree, Unit is Angstrom
 O     -4.5669308731      0.6850639706     -0.0076964016
 H     -3.6134358313      0.5342714934      0.1726743008
 H     -4.5261662601      1.2704193050     -0.7731655566
3
# ORCA AIMD Position Step 30, t=15.00 fs, E_Pot=-76.33785933 Hartree, Unit is Angstrom
 O     -4.5677853427      0.6816749893     -0.0112819378
 H     -3.6089404260      0.5360057867      0.1837547752
 H     -4.5270654529      1.2689067165     -0.7793858059
3
# ORCA AIMD Position Step 31, t=15.50 fs, E_Pot=-76.33777328 Hartree, Unit is Angstrom
 O     -4.5685619867      0.6782339124     -0.0147901517
 H     -3.6056772807      0.5378955233      0.1946053449
 H     -4.5279570645      1.2681223598     -0.7865482098
3
# ORCA AIMD Position Step 32, t=16.00 fs, E_Pot=-76.33764639 Hartree, Unit is Angstrom
 O     -4.5692302640      0.6747508150     -0.0182357726
 H     -3.6042333074      0.5400943363      0.2049886712
 H     -4.5287440961      1.2677249411     -0.7942086093
3
# ORCA AIMD Position Step 33, t=16.50 fs, E_Pot=-76.33752404 Hartree, Unit is Angstrom
 O     -4.5697714195      0.6712397655     -0.0216398802
 H     -3.6049982248      0.5427157229      0.2147067474
 H     -4.5293419501      1.2673376847     -0.8018732700
3
# ORCA AIMD Position Step 34, t=17.00 fs, E_Pot=-76.33745018 Hartree, Unit is Angstrom
 O     -4.5701795544      0.6677169068     -0.0250262731
 H     -3.6081437304      0.5458309177      0.2236156789
 H     -4.5296797632      1.2665943820     -0.8090582164
3
# ORCA AIMD Position Step 35, t=17.50 fs, E_Pot=-76.33745066 Hartree, Unit is Angstrom
 O     -4.5704618945      0.6641988955     -0.0284180999
 H     -3.6136159828      0.5494700024      0.2316371822
 H     -4.5297008284      1.2651783259     -0.8153393774
3
# ORCA AIMD Position Step 36, t=18.00 fs, E_Pot=-76.33752218 Hartree, Unit is Angstrom
 O     -4.5706385599      0.6607015696     -0.0318352942
 H     -3.6211369067      0.5536227767      0.2387652497
 H     -4.5293631752      1.2628520892     -0.8203907065
3
# ORCA AIMD Position Step 37, t=18.50 fs, E_Pot=-76.33763173 Hartree, Unit is Angstrom
 O     -4.5707418599      0.6572379469     -0.0352930750
 H     -3.6302161888      0.5582444919      0.2450723782
 H     -4.5286392771      1.2594808249     -0.8240168893
3
# ORCA AIMD Position Step 38, t=19.00 fs, E_Pot=-76.33772939 Hartree, Unit is Angstrom
 O     -4.5708142948      0.6538162391     -0.0388017998
 H     -3.6401864872      0.5632637175      0.2507094913
 H     -4.5275151251      1.2550420969     -0.8261690174
3
# ORCA AIMD Position Step 39, t=19.50 fs, E_Pot=-76.33777050 Hartree, Unit is Angstrom
 O     -4.5709051434      0.6504376538     -0.0423670272
 H     -3.6502635941      0.5685971963      0.2559001317
 H     -4.5259873152      1.2496293338     -0.8269539009
3
# ORCA AIMD Position Step 40, t=20.00 fs, E_Pot=-76.33773783 Hartree, Unit is Angstrom
 O     -4.5710654815      0.6470952384     -0.0459890710
 H     -3.6596309736      0.5741625011      0.2609162340
 H     -4.5240597422      1.2434458624     -0.8266282487
3
# ORCA AIMD Position Step 41, t=20.50 fs, E_Pot=-76.33765124 Hartree, Unit is Angstrom
 O     -4.5713419525      0.6437738088     -0.0496620476
 H     -3.6675435552      0.5798905303      0.2660413623
 H     -4.5217392784      1.2367903690     -0.8255800990
3
# ORCA AIMD Position Step 42, t=21.00 fs, E_Pot=-76.33755745 Hartree, Unit is Angstrom
 O     -4.5717701021      0.6404512759     -0.0533726776
 H     -3.6734365850      0.5857346200      0.2715247641
 H     -4.5190315635      1.2300328643     -0.8242959535
3
# ORCA AIMD Position Step 43, t=21.50 fs, E_Pot=-76.33750504 Hartree, Unit is Angstrom
 O     -4.5723686163      0.6371015307     -0.0570995994
 H     -3.6770173868      0.5916737868      0.2775349887
 H     -4.5159381323      1.2235794778     -0.8233118375
3
# ORCA AIMD Position Step 44, t=22.00 fs, E_Pot=-76.33751990 Hartree, Unit is Angstrom
 O     -4.5731359846      0.6336985905     -0.0608143154
 H     -3.6783159655      0.5977100023      0.2841255517
 H     -4.5124558207      1.2178252383     -0.8231485411
3
# ORCA AIMD Position Step 45, t=22.50 fs, E_Pot=-76.33759561 Hartree, Unit is Angstrom
 O     -4.5740507670      0.6302212197     -0.0644844430
 H     -3.6776765453      0.6038582704      0.2912207164
 H     -4.5085793547      1.2130994137     -0.8242372947
3
# ORCA AIMD Position Step 46, t=23.00 fs, E_Pot=-76.33770007 Hartree, Unit is Angstrom
 O     -4.5750751701      0.6266570166     -0.0680793553
 H     -3.6756953674      0.6101344123      0.2986274309
 H     -4.5043074891      1.2096091740     -0.8268457432
3
# ORCA AIMD Position Step 47, t=23.50 fs, E_Pot=-76.33779129 Hartree, Unit is Angstrom
 O     -4.5761614060      0.6230045822     -0.0715761934
 H     -3.6731151593      0.6165454341      0.3060716078
 H     -4.4996499278      1.2074022773     -0.8310309807
3
# ORCA AIMD Position Step 48, t=24.00 fs, E_Pot=-76.33783340 Hartree, Unit is Angstrom
 O     -4.5772585306      0.6192736229     -0.0749645523
 H     -3.6707134389      0.6230872838      0.3132473192
 H     -4.4946329726      1.2063543309     -0.8366273408
3
# ORCA AIMD Position Step 49, t=24.50 fs, E_Pot=-76.33780961 Hartree, Unit is Angstrom
 O     -4.5783184739      0.6154832352     -0.0782479360
 H     -3.6692040280      0.6297417747      0.3198614188
 H     -4.4893039844      1.2061900249     -0.8432767276
3
# ORCA AIMD Position Step 50, t=25.00 fs, E_Pot=-76.33772883 Hartree, Unit is Angstrom
 O     -4.5793003920      0.6116588020     -0.0814423618
 H     -3.6691675882      0.6364773330      0.3256696196
 H     -4.4837323763      1.2065283822     -0.8504900302
3
# ORCA AIMD Position Step 51, t=25.50 fs, E_Pot=-76.33762307 Hartree, Unit is Angstrom
 O     -4.5801733679      0.6078284459     -0.0845730528
 H     -3.6710106533      0.6432519213      0.3305015975
 H     -4.4780071757      1.2069390232     -0.8577218913
3
# ORCA AIMD Position Step 52, t=26.00 fs, E_Pot=-76.33753503 Hartree, Unit is Angstrom
 O     -4.5809178256      0.6040199047     -0.0876703616
 H     -3.6749462352      0.6500169412      0.3342764557
 H     -4.4722323034      1.2069968603     -0.8644421465
3
# ORCA AIMD Position Step 53, t=26.50 fs, E_Pot=-76.33750041 Hartree, Unit is Angstrom
 O     -4.5815261099      0.6002582144     -0.0907658482
 H     -3.6809881404      0.6567219182      0.3370117108
 H     -4.4665205769      1.2063274736     -0.8701941323
3
# ORCA AIMD Position Step 54, t=27.00 fs, E_Pot=-76.33753241 Hartree, Unit is Angstrom
 O     -4.5820025055      0.5965640618     -0.0938891119
 H     -3.6889547693      0.6633195218      0.3388274506
 H     -4.4609873105      1.2046405816     -0.8746371394
3
# ORCA AIMD Position Step 55, t=27.50 fs, E_Pot=-76.33761528 Hartree, Unit is Angstrom
 O     -4.5823627681      0.5929523232     -0.0970655464
 H     -3.6984819762      0.6697698361      0.3399439100
 H     -4.4557441316      1.2017531362     -0.8775755800
3
# ORCA AIMD Position Step 56, t=28.00 fs, E_Pot=-76.33771035 Hartree, Unit is Angstrom
 O     -4.5826331524      0.5894306266     -0.1003152627
 H     -3.7090469622      0.6760428181      0.3406719285
 H     -4.4508918622      1.1976023677     -0.8789736264
3
# ORCA AIMD Position Step 57, t=28.50 fs, E_Pot=-76.33777316 Hartree, Unit is Angstrom
 O     -4.5828479235      0.5859976273     -0.1036522333
 H     -3.7200203078      0.6821268554      0.3413939746
 H     -4.4465106193      1.1922505340     -0.8789635078
3
# ORCA AIMD Position Step 58, t=29.00 fs, E_Pot=-76.33777407 Hartree, Unit is Angstrom
 O     -4.5830456492      0.5826424090     -0.1070835327
 H     -3.7307350966      0.6880305095      0.3425320084
 H     -4.4426519439      1.1858796525     -0.8778380729
3
# ORCA AIMD Position Step 59, t=29.50 fs, E_Pot=-76.33771242 Hartree, Unit is Angstrom
 O     -4.5832642612      0.5793452399     -0.1106080918
 H     -3.7405711540      0.6937773299      0.3445004114
 H     -4.4393342798      1.1787776474     -0.8760303324
3
# ORCA AIMD Position Step 60, t=30.00 fs, E_Pot=-76.33761624 Hartree, Unit is Angstrom
 O     -4.5835355922      0.5760797139     -0.1142153910
 H     -3.7490434615      0.6993960605      0.3476514003
 H     -4.4365411247      1.1713148383     -0.8740789566
3
# ORCA AIMD Position Step 61, t=30.50 fs, E_Pot=-76.33752790 Hartree, Unit is Angstrom
 O     -4.5838803799      0.5728162393     -0.1178847558
 H     -3.7558778795      0.7049080162      0.3522214602
 H     -4.4342231117      1.1639092652     -0.8725780445
3
# ORCA AIMD Position Step 62, t=31.00 fs, E_Pot=-76.33748437 Hartree, Unit is Angstrom
 O     -4.5843048857      0.5695265281     -0.1215861575
 H     -3.7610556210      0.7103154418      0.3582905745
 H     -4.4323047728      1.1569801129     -0.8721109697
3
# ORCA AIMD Position Step 63, t=31.50 fs, E_Pot=-76.33750229 Hartree, Unit is Angstrom
 O     -4.5848000381      0.5661883457     -0.1252831733
 H     -3.7648128604      0.7155938930      0.3657639943
 H     -4.4306961823      1.1508925623     -0.8731729135
3
# ORCA AIMD Position Step 64, t=32.00 fs, E_Pot=-76.33757287 Hartree, Unit is Angstrom
 O     -4.5853431318      0.5627895533     -0.1289381013
 H     -3.7675968540      0.7206902731      0.3743805680
 H     -4.4293088344      1.1459011237     -0.8760926353
3
# ORCA AIMD Position Step 65, t=32.50 fs, E_Pot=-76.33766613 Hartree, Unit is Angstrom
 O     -4.5859021332      0.5593300511     -0.1325184054
 H     -3.7699848430      0.7255309471      0.3837527353
 H     -4.4280692621      1.1421060894     -0.8809746211
3
# ORCA AIMD Position Step 66, t=33.00 fs, E_Pot=-76.33774231 Hartree, Unit is Angstrom
 O     -4.5864404846      0.5558214828     -0.1360022741
 H     -3.7725984328      0.7300354786      0.3934210626
 H     -4.4269305498      1.1394329493     -0.8876766163
3
# ORCA AIMD Position Step 67, t=33.50 fs, E_Pot=-76.33776833 Hartree, Unit is Angstrom
 O     -4.5869223330      0.5522846760     -0.1393817621
 H     -3.7760197546      0.7341304477      0.4029147717
 H     -4.4258755091      1.1376466703     -0.8958324541
3
# ORCA AIMD Position Step 68, t=34.00 fs, E_Pot=-76.33773313 Hartree, Unit is Angstrom
 O     -4.5873168248      0.5487457119     -0.1426628026
 H     -3.7807286117      0.7377606875      0.4118039788
 H     -4.4249129465      1.1363943638     -0.9049123423
3
# ORCA AIMD Position Step 69, t=34.50 fs, E_Pot=-76.33765380 Hartree, Unit is Angstrom
 O     -4.5876011718      0.5452316919     -0.1458628149
 H     -3.7870629328      0.7408970386      0.4197389515
 H     -4.4240689135      1.1352627626     -0.9143019904
3
# ORCA AIMD Position Step 70, t=35.00 fs, E_Pot=-76.33756832 Hartree, Unit is Angstrom
 O     -4.5877625205      0.5417670969     -0.1490070713
 H     -3.7951988706      0.7435414621      0.4264764429
 H     -4.4233759556      1.1338361349     -0.9233815279
3
# ORCA AIMD Position Step 71, t=35.50 fs, E_Pot=-76.33751834 Hartree, Unit is Angstrom
 O     -4.5877988452      0.5383712180     -0.1521248552
 H     -3.8051446904      0.7457305505      0.4318958396
 H     -4.4228629337      1.1317449732     -0.9315915188
3
# ORCA AIMD Position Step 72, t=36.00 fs, E_Pot=-76.33753025 Hartree, Unit is Angstrom
 O     -4.5877191250      0.5350566621     -0.1552460610
 H     -3.8167431092      0.7475368795      0.4360069363
 H     -4.4225473292      1.1287020018     -0.9384814633
3
# ORCA AIMD Position Step 73, t=36.50 fs, E_Pot=-76.33760300 Hartree, Unit is Angstrom
 O     -4.5875431190      0.5318283237     -0.1583985435
 H     -3.8296787615      0.7490683526      0.4389508743
 H     -4.4224297428      1.1245278136     -0.9437443853
3
# ORCA AIMD Position Step 74, t=37.00 fs, E_Pot=-76.33770814 Hartree, Unit is Angstrom
 O     -4.5873000540      0.5286825821     -0.1616063496
 H     -3.8435028455      0.7504655847      0.4409917996
 H     -4.4224904405      1.1191642427     -0.9472384822
3
# ORCA AIMD Position Step 75, t=37.50 fs, E_Pot=-76.33780190 Hartree, Unit is Angstrom
 O     -4.5870264321      0.5256064130     -0.1648884072
 H     -3.8576738562      0.7518981614      0.4424995174
 H     -4.4226855158      1.1126809279     -0.9490015571
3
# ORCA AIMD Position Step 76, t=38.00 fs, E_Pot=-76.33784439 Hartree, Unit is Angstrom
 O     -4.5867626092      0.5225774784     -0.1682569641
 H     -3.8716153142      0.7535526865      0.4439111677
 H     -4.4229460583      1.1052719475     -0.9492509592
3
# ORCA AIMD Position Step 77, t=38.50 fs, E_Pot=-76.33781697 Hartree, Unit is Angstrom
 O     -4.5865485460      0.5195653308     -0.1717155858
 H     -3.8847846369      0.7556149592      0.4456758791
 H     -4.4231786166      1.0972443103     -0.9483699521
3
# ORCA AIMD Position Step 78, t=39.00 fs, E_Pot=-76.33772948 Hartree, Unit is Angstrom
 O     -4.5864191816      0.5165338967     -0.1752570299
 H     -3.8967448527      0.7582478789      0.4481878411
 H     -4.4232676197      1.0889968653     -0.9468781809
3
# ORCA AIMD Position Step 79, t=39.50 fs, E_Pot=-76.33761494 Hartree, Unit is Angstrom
 O     -4.5864001694      0.5134451902     -0.1788618893
 H     -3.9072261612      0.7615686473      0.4517192827
 H     -4.4230809302      1.0809871987     -0.9453832331
3
# ORCA AIMD Position Step 80, t=40.00 fs, E_Pot=-76.33751581 Hartree, Unit is Angstrom
 O     -4.5865048201      0.5102639958     -0.1824991015
 H     -3.9161628522      0.7656303594      0.4563685753
 H     -4.4224797427      1.0736848554     -0.9445117758
3
# ORCA AIMD Position Step 81, t=40.50 fs, E_Pot=-76.33746816 Hartree, Unit is Angstrom
 O     -4.5867328783      0.5069629619     -0.1861291081
 H     -3.9236957181      0.7704132847      0.4620376047
 H     -4.4213331205      1.0675125126     -0.9448238614
3
# ORCA AIMD Position Step 82, t=41.00 fs, E_Pot=-76.33748820 Hartree, Unit is Angstrom
 O     -4.5870714447      0.5035272037     -0.1897094680
 H     -3.9301367744      0.7758263594      0.4684431991
 H     -4.4195362692      1.0627841306     -0.9467229225
3
# ORCA AIMD Position Step 83, t=41.50 fs, E_Pot=-76.33756392 Hartree, Unit is Angstrom
 O     -4.5874973186      0.4999574692     -0.1932021961
 H     -3.9359119384      0.7817192021      0.4751602522
 H     -4.4170296786      1.0596480847     -0.9503771656
3
# ORCA AIMD Position Step 84, t=42.00 fs, E_Pot=-76.33765783 Hartree, Unit is Angstrom
 O     -4.5879807317      0.4962700871     -0.1965804748
 H     -3.9414903276      0.7879045105      0.4816883983
 H     -4.4138116742      1.0580596079     -0.9556855432
3
# ORCA AIMD Position Step 85, t=42.50 fs, E_Pot=-76.33772309 Hartree, Unit is Angstrom
 O     -4.5884892056      0.4924939885     -0.1998331796
 H     -3.9473239708      0.7941866015      0.4875251769
 H     -4.4099400924      1.0577854458     -0.9622927612
3
# ORCA AIMD Position Step 86, t=43.00 fs, E_Pot=-76.33772732 Hartree, Unit is Angstrom
 O     -4.5889914079      0.4886657681     -0.2029655623
 H     -3.9537970278      0.8003835000      0.4922277238
 H     -4.4055245235      1.0584458848     -0.9696539998
3
# ORCA AIMD Position Step 87, t=43.50 fs, E_Pot=-76.33766963 Hartree, Unit is Angstrom
 O     -4.5894602025      0.4848241536     -0.2059968138
 H     -3.9611942991      0.8063444271      0.4954578845
 H     -4.4007108873      1.0595769369     -0.9771265876
3
# ORCA AIMD Position Step 88, t=44.00 fs, E_Pot=-76.33758076 Hartree, Unit is Angstrom
 O     -4.5898747614      0.4810052051     -0.2089558933
 H     -3.9696857030      0.8119615368      0.4970100035
 H     -4.3956633036      1.0606955093     -0.9840632854
3
# ORCA AIMD Position Step 89, t=44.50 fs, E_Pot=-76.33750725 Hartree, Unit is Angstrom
 O     -4.5902217838      0.4772389721     -0.2118769771
 H     -3.9793219475      0.8171767721      0.4968248857
 H     -4.3905473682      1.0613548084     -0.9898895712
3
# ORCA AIMD Position Step 90, t=45.00 fs, E_Pot=-76.33748908 Hartree, Unit is Angstrom
 O     -4.5904959708      0.4735476254     -0.2147953540
 H     -3.9900378810      0.8219854883      0.4949942668
 H     -4.3855165255      1.0611850802     -0.9941589352
3
# ORCA AIMD Position Step 91, t=45.50 fs, E_Pot=-76.33754198 Hartree, Unit is Angstrom
 O     -4.5906999454      0.4699446684     -0.2177441131
 H     -4.0016607747      0.8264358239      0.4917567732
 H     -4.3807025161      1.0599203770     -0.9965882002
3
# ORCA AIMD Position Step 92, t=46.00 fs, E_Pot=-76.33765104 Hartree, Unit is Angstrom
 O     -4.5908438262      0.4664343248     -0.2207516693
 H     -4.0139242142      0.8306249827      0.4874850929
 H     -4.3762074443      1.0574163946     -0.9970796788
3
# ORCA AIMD Position Step 93, t=46.50 fs, E_Pot=-76.33777728 Hartree, Unit is Angstrom
 O     -4.5909439901      0.4630110859     -0.2238399298
 H     -4.0264965681      0.8346905926      0.4826579240
 H     -4.3720963611      1.0536586687     -0.9957296427
3
# ORCA AIMD Position Step 94, t=47.00 fs, E_Pot=-76.33787361 Hartree, Unit is Angstrom
 O     -4.5910212037      0.4596594443     -0.2270226521
 H     -4.0390218464      0.8387985324      0.4778181971
 H     -4.3683887353      1.0487645990     -0.9928265687
3
# ORCA AIMD Position Step 95, t=47.50 fs, E_Pot=-76.33790345 Hartree, Unit is Angstrom
 O     -4.5910980457      0.4563550663     -0.2303036722
 H     -4.0511665679      0.8431194888      0.4735140320
 H     -4.3650550180      1.0429747887     -0.9888333412
3
# ORCA AIMD Position Step 96, t=48.00 fs, E_Pot=-76.33785474 Hartree, Unit is Angstrom
 O     -4.5911959845      0.4530673275     -0.2336753096
 H     -4.0626666978      0.8477994657      0.4702316888
 H     -4.3620176122      1.0366340434     -0.9843535159
3
# ORCA AIMD Position Step 97, t=48.50 fs, E_Pot=-76.33774470 Hartree, Unit is Angstrom
 O     -4.5913324849      0.4497631179     -0.2371176916
 H     -4.0733669497      0.8529294717      0.4683310813
 H     -4.3591578480      1.0301594552     -0.9800793583
3
# ORCA AIMD Position Step 98, t=49.00 fs, E_Pot=-76.33761427 Hartree, Unit is Angstrom
 O     -4.5915185870      0.4464115896     -0.2405998631
 H     -4.0832438522      0.8585214451      0.4679967651
 H     -4.3563304640      1.0239937704     -0.9767206885
3
# ORCA AIMD Position Step 99, t=49.50 fs, E_Pot=-76.33751352 Hartree, Unit is Angstrom
 O     -4.5917573489      0.4429893278     -0.2440831247
 H     -4.0924060977      0.8644967773      0.4692153199
 H     -4.3533858948      1.0185460420     -0.9749183496
3
# ORCA AIMD Position Step 100, t=50.00 fs, E_Pot=-76.33748106 Hartree, Unit is Angstrom
 O     -4.5920433916      0.4394852003     -0.2475262521
 H     -4.1010702367      0.8706891198      0.4717828281
 H     -4.3501988341      1.0141277660     -0.9751533859
3
# ORCA AIMD Position Step 101, t=50.50 fs, E_Pot=-76.33752449 Hartree, Unit is Angstrom
 O     -4.5923633205      0.4359038075     -0.2508918529
 H     -4.1095228032      0.8768622611      0.4753391008
 H     -4.3466968753      1.0108939294     -0.9776670767
3
# ORCA AIMD Position Step 102, t=51.00 fs, E_Pot=-76.33761399 Hartree, Unit is Angstrom
 O     -4.5926974771      0.4322656165     -0.2541524011
 H     -4.1180732477      0.8827416149      0.4794239943
 H     -4.3428794082      1.0088113415     -0.9824195783
3
# ORCA AIMD Position Step 103, t=51.50 fs, E_Pot=-76.33769644 Hartree, Unit is Angstrom
 O     -4.5930222763      0.4286037445     -0.2572946113
 H     -4.1270165325      0.8880526049      0.4835420008
 H     -4.3388201889      1.0076591832     -0.9890968662
3
# ORCA AIMD Position Step 104, t=52.00 fs, E_Pot=-76.33772416 Hartree, Unit is Angstrom
 O     -4.5933132525      0.4249582354     -0.2603206771
 H     -4.1366005285      0.8925536031      0.4872235221
 H     -4.3346549245      1.0070689876     -0.9971697609
3
# ORCA AIMD Position Step 105, t=52.50 fs, E_Pot=-76.33768048 Hartree, Unit is Angstrom
 O     -4.5935479988      0.4213696715     -0.2632465164
 H     -4.1470055222      0.8960607502      0.4900739680
 H     -4.3305575981      1.0065878730     -1.0059838548
3
# ORCA AIMD Position Step 106, t=53.00 fs, E_Pot=-76.33758698 Hartree, Unit is Angstrom
 O     -4.5937085496      0.4178736844     -0.2660981636
 H     -4.1583342923      0.8984636298      0.4918077398
 H     -4.3267132442      1.0057463966     -1.0148542358
3
# ORCA AIMD Position Step 107, t=53.50 fs, E_Pot=-76.33749077 Hartree, Unit is Angstrom
 O     -4.5937829901      0.4144971949     -0.2689075953
 H     -4.1706097546      0.8997334298      0.4922683946
 H     -4.3232935324      1.0041166555     -1.0231455191
3
# ORCA AIMD Position Step 108, t=54.00 fs, E_Pot=-76.33744114 Hartree, Unit is Angstrom
 O     -4.5937662943      0.4112564756     -0.2717088028
 H     -4.1837776517      0.8999258810      0.4914380690
 H     -4.3204380735      1.0013546556     -1.0303294678
3
# ORCA AIMD Position Step 109, t=54.50 fs, E_Pot=-76.33746795 Hartree, Unit is Angstrom
 O     -4.5936606341      0.4081566049     -0.2745344633
 H     -4.1977103267      0.8991789891      0.4894379573
 H     -4.3182425966      0.9972281023     -1.0360219209
3
# ORCA AIMD Position Step 110, t=55.00 fs, E_Pot=-76.33756968 Hartree, Unit is Angstrom
 O     -4.5934753189      0.4051912748     -0.2774133077
 H     -4.2122147396      0.8977076806      0.4865211037
 H     -4.3167500162      0.9916349049     -1.0400075449
3
# ORCA AIMD Position Step 111, t=55.50 fs, E_Pot=-76.33771473 Hartree, Unit is Angstrom
 O     -4.5932260479      0.4023429497     -0.2803680606
 H     -4.2270507524      0.8957899803      0.4830506893
 H     -4.3159445977      0.9846113623     -1.0422538630
3
# ORCA AIMD Position Step 112, t=56.00 fs, E_Pot=-76.33785359 Hartree, Unit is Angstrom
 O     -4.5929334785      0.3995832991     -0.2834136427
 H     -4.2419614956      0.8937461317      0.4794642989
 H     -4.3157468784      0.9763323371     -1.0429174790
3
# ORCA AIMD Position Step 113, t=56.50 fs, E_Pot=-76.33793729 Hartree, Unit is Angstrom
 O     -4.5926213928      0.3968748223     -0.2865552971
 H     -4.2567042899      0.8919058761      0.4762206540
 H     -4.3160148763      0.9671019565     -1.0423363368
3
# ORCA AIMD Position Step 114, t=57.00 fs, E_Pot=-76.33793534 Hartree, Unit is Angstrom
 O     -4.5923145749      0.3941737065     -0.2897867997
 H     -4.2710803284      0.8905699631      0.4737360323
 H     -4.3165503550      0.9573346058     -1.0410063274
3
# ORCA AIMD Position Step 115, t=57.50 fs, E_Pot=-76.33784781 Hartree, Unit is Angstrom