
                                 *****************
                                 * O   R   C   A *
                                 *****************

                                            #,                                       
                                            ###                                      
                                            ####                                     
                                            #####                                    
                                            ######                                   
                                           ########,                                 
                                     ,,################,,,,,                         
                               ,,#################################,,                 
                          ,,##########################################,,             
                       ,#########################################, ''#####,          
                    ,#############################################,,   '####,        
                  ,##################################################,,,,####,       
                ,###########''''           ''''###############################       
              ,#####''   ,,,,##########,,,,          '''####'''          '####       
            ,##' ,,,,###########################,,,                        '##       
           ' ,,###''''                  '''############,,,                           
         ,,##''                                '''############,,,,        ,,,,,,###''
      ,#''                                            '''#######################'''  
     '                                                          ''''####''''         
             ,#######,   #######,   ,#######,      ##                                
            ,#'     '#,  ##    ##  ,#'     '#,    #''#        ######   ,####,        
            ##       ##  ##   ,#'  ##            #'  '#       #        #'  '#        
            ##       ##  #######   ##           ,######,      #####,   #    #        
            '#,     ,#'  ##    ##  '#,     ,#' ,#      #,         ##   #,  ,#        
             '#######'   ##     ##  '#######'  #'      '#     #####' # '####'        



                  #######################################################
                  #                        -***-                        #
                  #          Department of theory and spectroscopy      #
                  #    Directorship and core code : Frank Neese         #
                  #        Max Planck Institute fuer Kohlenforschung    #
                  #                Kaiser Wilhelm Platz 1               #
                  #                 D-45470 Muelheim/Ruhr               #
                  #                      Germany                        #
                  #                                                     #
                  #                  All rights reserved                #
                  #                        -***-                        #
                  #######################################################


                         Program Version 5.0.3 -  RELEASE  -


 With contributions from (in alphabetic order):
   Daniel Aravena         : Magnetic Suceptibility
   Michael Atanasov       : Ab Initio Ligand Field Theory (pilot matlab implementation)
   Alexander A. Auer      : GIAO ZORA, VPT2 properties, NMR spectrum
   Ute Becker             : Parallelization
   Giovanni Bistoni       : ED, misc. LED, open-shell LED, HFLD
   Martin Brehm           : Molecular dynamics
   Dmytro Bykov           : SCF Hessian
   Vijay G. Chilkuri      : MRCI spin determinant printing, contributions to CSF-ICE
   Dipayan Datta          : RHF DLPNO-CCSD density
   Achintya Kumar Dutta   : EOM-CC, STEOM-CC
   Dmitry Ganyushin       : Spin-Orbit,Spin-Spin,Magnetic field MRCI
   Miquel Garcia          : C-PCM and meta-GGA Hessian, CC/C-PCM, Gaussian charge scheme
   Yang Guo               : DLPNO-NEVPT2, F12-NEVPT2, CIM, IAO-localization
   Andreas Hansen         : Spin unrestricted coupled pair/coupled cluster methods
   Benjamin Helmich-Paris : MC-RPA, TRAH-SCF, COSX integrals
   Lee Huntington         : MR-EOM, pCC
   Robert Izsak           : Overlap fitted RIJCOSX, COSX-SCS-MP3, EOM
   Marcus Kettner         : VPT2
   Christian Kollmar      : KDIIS, OOCD, Brueckner-CCSD(T), CCSD density, CASPT2, CASPT2-K
   Simone Kossmann        : Meta GGA functionals, TD-DFT gradient, OOMP2, MP2 Hessian
   Martin Krupicka        : Initial AUTO-CI
   Lucas Lang             : DCDCAS
   Marvin Lechner         : AUTO-CI (C++ implementation), FIC-MRCC
   Dagmar Lenk            : GEPOL surface, SMD
   Dimitrios Liakos       : Extrapolation schemes; Compound Job, initial MDCI parallelization
   Dimitrios Manganas     : Further ROCIS development; embedding schemes
   Dimitrios Pantazis     : SARC Basis sets
   Anastasios Papadopoulos: AUTO-CI, single reference methods and gradients
   Taras Petrenko         : DFT Hessian,TD-DFT gradient, ASA, ECA, R-Raman, ABS, FL, XAS/XES, NRVS
   Peter Pinski           : DLPNO-MP2, DLPNO-MP2 Gradient
   Christoph Reimann      : Effective Core Potentials
   Marius Retegan         : Local ZFS, SOC
   Christoph Riplinger    : Optimizer, TS searches, QM/MM, DLPNO-CCSD(T), (RO)-DLPNO pert. Triples
   Tobias Risthaus        : Range-separated hybrids, TD-DFT gradient, RPA, STAB
   Michael Roemelt        : Original ROCIS implementation
   Masaaki Saitow         : Open-shell DLPNO-CCSD energy and density
   Barbara Sandhoefer     : DKH picture change effects
   Avijit Sen             : IP-ROCIS
   Kantharuban Sivalingam : CASSCF convergence, NEVPT2, FIC-MRCI
   Bernardo de Souza      : ESD, SOC TD-DFT
   Georgi Stoychev        : AutoAux, RI-MP2 NMR, DLPNO-MP2 response
   Willem Van den Heuvel  : Paramagnetic NMR
   Boris Wezisla          : Elementary symmetry handling
   Frank Wennmohs         : Technical directorship


 We gratefully acknowledge several colleagues who have allowed us to
 interface, adapt or use parts of their codes:
   Stefan Grimme, W. Hujo, H. Kruse, P. Pracht,  : VdW corrections, initial TS optimization,
                  C. Bannwarth, S. Ehlert          DFT functionals, gCP, sTDA/sTD-DF
   Ed Valeev, F. Pavosevic, A. Kumar             : LibInt (2-el integral package), F12 methods
   Garnet Chan, S. Sharma, J. Yang, R. Olivares  : DMRG
   Ulf Ekstrom                                   : XCFun DFT Library
   Mihaly Kallay                                 : mrcc  (arbitrary order and MRCC methods)
   Jiri Pittner, Ondrej Demel                    : Mk-CCSD
   Frank Weinhold                                : gennbo (NPA and NBO analysis)
   Christopher J. Cramer and Donald G. Truhlar   : smd solvation model
   Lars Goerigk                                  : TD-DFT with DH, B97 family of functionals
   V. Asgeirsson, H. Jonsson                     : NEB implementation
   FAccTs GmbH                                   : IRC, NEB, NEB-TS, DLPNO-Multilevel, CI-OPT
                                                   MM, QMMM, 2- and 3-layer-ONIOM, Crystal-QMMM,
                                                   LR-CPCM, SF, NACMEs, symmetry and pop. for TD-DFT,
                                                   nearIR, NL-DFT gradient (VV10), updates on ESD,
                                                   ML-optimized integration grids
   S Lehtola, MJT Oliveira, MAL Marques          : LibXC Library
   Liviu Ungur et al                             : ANISO software


 Your calculation uses the libint2 library for the computation of 2-el integrals
 For citations please refer to: http://libint.valeyev.net

 Your ORCA version has been built with support for libXC version: 5.1.0
 For citations please refer to: https://tddft.org/programs/libxc/

 This ORCA versions uses:
   CBLAS   interface :  Fast vector & matrix operations
   LAPACKE interface :  Fast linear algebra routines
   SCALAPACK package :  Parallel linear algebra routines
   Shared memory     :  Shared parallel matrices
   BLAS/LAPACK       :  OpenBLAS 0.3.15  USE64BITINT DYNAMIC_ARCH NO_AFFINITY Haswell SINGLE_THREADED
        Core in use  :  Haswell
   Copyright (c) 2011-2014, The OpenBLAS Project


Your calculation utilizes the atom-pairwise dispersion correction
with the Becke-Johnson damping scheme (D3BJ)
Cite in your paper:
S.Grimme, S.Ehrlich, L.Goerigk, J Comput Chem, (2011), 32, 1456–1465 
S.Grimme, J.Antony, S.Ehrlich and H.Krieg, J.Chem.Phys., 132, (2010), 154104 
   

================================================================================

----- Orbital basis set information -----
Your calculation utilizes the basis: def2-SVP
   F. Weigend and R. Ahlrichs, Phys. Chem. Chem. Phys. 7, 3297 (2005).

----- AuxJ basis set information -----
Your calculation utilizes the auxiliary basis: def2/J
   F. Weigend, Phys. Chem. Chem. Phys. 8, 1057 (2006).

================================================================================
                                        WARNINGS
                       Please study these warnings very carefully!
================================================================================


WARNING: Found SCFConvIgnored == true
  ===> : Will try to continue after any unconverged SCF -
         no matter how far from convergence the wavefunction might be.

         Please be very careful with your results!


INFO   : the flag for use of the SHARK integral package has been found!

================================================================================
                                       INPUT FILE
================================================================================
NAME = h2o_md1.inp
|  1> ! MD BLYP D3 def2-SVP
|  2> 
|  3> %md
|  4>   timestep 0.5_fs # This is a comment
|  5>   initvel 300_K
|  6>   thermostat berendsen 300_K timecon 10.0_fs
|  7>   dump position stride 1 filename "H2O_trajectory.xyz"
|  8>   run 200
|  9> end
| 10> 
| 11> * xyz 0 1
| 12> O -4.54021 0.78439 0.09307
| 13> H -3.64059 0.38224 -0.01432
| 14> H -4.63463 1.39665 -0.67880
| 15> *
| 16> 
| 17>                          ****END OF INPUT****
================================================================================

Will write log file to "h2o_md1.md.log".

Command line:  orca_md h2o_md1 orca


    ################################################################
    ########    ORCA ab initio Molecular Dynamics Module    ########
    ########          and SANscript Interpreter             ########
    ########          Martin Brehm, 2016 - 2022             ########
    ########       https://brehm-research.de/orcamd         ########
    ################################################################


  * Compiled as ORCA module.
  * Called from ORCA.
  * Base name: "h2o_md1"
  * Source code version: Jan 31 2022
  * Compiled at Feb 13 2022 16:13:18, compiler "Clang 12.0.0 (/home/frankw/CompEnv/src/llvm1200/llvm-project/clang d28af7c654d8db0b68c175db5ce212d74fb5e9bc)", LLVM, CLANG 12.0.0, Linux
  * Machine: x86_64, int=4b, long=8b, addr=8b, 0xA0B0C0D0=D0,C0,B0,A0.
  * Executable name: "orca_md"
  * Running on cpn-p27-20.compute.cbls.ccr.buffalo.edu at Sun May  7 11:03:51 2023 (PID 16738)
  * Running in /projects/academic/alexeyak/kosar/h2o_orca/1_md

Initializing SAN engine...

Started parsing input script.
Reading input file "h2o_md1.mdinput" ...
164 Bytes read.
Tokenizing input...
Found 17 tokens in file.
Handling brackets...
Handling reference parentheses...
Handling keywords...
Handling operators...
Grouping commas...
Removing commas...
Handling variables...
Found unit "fs", which is the default.
Found unit "K", which is the default.
Found unit "K", which is the default.
Found unit "fs", which is the default.
Handling functions, iteration 1...
Handling functions, iteration 2...
Handling functions, iteration 3...
Flattening tree...
Checking keyword syntax...
Finished parsing input script.

Initializing MD engine with interface "ORCA" ...


>>>>>>>>>>>>>>>>>>>>>>>>>>>>>>>>>>>>>>>>>>>>>>>>>>>>
>>>   Output of System Information (from ORCA)   >>>
>>>>>>>>>>>>>>>>>>>>>>>>>>>>>>>>>>>>>>>>>>>>>>>>>>>>

---------------------------------
CARTESIAN COORDINATES (ANGSTROEM)
---------------------------------
  O     -4.540210    0.784390    0.093070
  H     -3.640590    0.382240   -0.014320
  H     -4.634630    1.396650   -0.678800

----------------------------
CARTESIAN COORDINATES (A.U.)
----------------------------
  NO LB      ZA    FRAG     MASS         X           Y           Z
   0 O     8.0000    0    15.999   -8.579753    1.482282    0.175877
   1 H     1.0000    0     1.008   -6.879718    0.722329   -0.027061
   2 H     1.0000    0     1.008   -8.758181    2.639286   -1.282746

---------------------
BASIS SET INFORMATION
---------------------
There are 2 groups of distinct atoms

 Group   1 Type O   : 7s4p1d contracted to 3s2p1d pattern {511/31/1}
 Group   2 Type H   : 4s1p contracted to 2s1p pattern {31/1}

Atom   0O    basis set group =>   1
Atom   1H    basis set group =>   2
Atom   2H    basis set group =>   2
---------------------------------
AUXILIARY/J BASIS SET INFORMATION
---------------------------------
There are 2 groups of distinct atoms

 Group   1 Type O   : 12s5p4d2f1g contracted to 6s4p3d1f1g pattern {711111/2111/211/2/1}
 Group   2 Type H   : 5s2p1d contracted to 3s1p1d pattern {311/2/1}

Atom   0O    basis set group =>   1
Atom   1H    basis set group =>   2
Atom   2H    basis set group =>   2

############################################
   Total Atom Count:               3
   Total System Mass:           18.0 a.m.u.
   Total Basis Dimension:         24
   Total Electron Number:         10
   Total Charge:                   0
   Total Multiplicity:             1
  ------------------------------------------
   ReducePrint:                 true
   Print Mulliken Pop:             1
   Print Loewdin Pop:              1
   Print Mayer Pop:                1
   Print Orbital Energies:         1
############################################

<<<<<<<<<<<<<<<<<<<<<<<<<<<<<<<<<<<<<<<<<<<<<<<<<<<<
<<<          End of System Information           <<<
<<<<<<<<<<<<<<<<<<<<<<<<<<<<<<<<<<<<<<<<<<<<<<<<<<<<

Initializing regions...

Defined regions:
         all:     3 atoms
          qm:     3 atoms
      active:     3 atoms


######################################################
########        Executing Input Script        ########
######################################################

Execution verbose level is 2.



>>>>>> Timestep 0.5

Setting integration time step to 0.50 fs.


>>>>>> Initvel 300

Initializing atom velocities for region "all" to 300.00 K:
  Creating Maxwell-Boltzmann distribution...
  Removing initial center of mass movement...
  Rescaling velocities to match exact initial temperature (factor 0.215322)...
Done.


>>>>>> Thermostat Berendsen, 300, Timecon, 10.0

Switching on thermostat for region "all": Type Berendsen, temperature 300.00 K, time constant 10.00 fs, global.


>>>>>> Dump Position, Stride, 1, Filename, "H2O_trajectory.xyz"

Modified writing position trajectory for region "all": Format XYZ, stride 1, filename "H2O_trajectory.xyz", append.


>>>>>> Run 200


***************************************************
****    Starting MD loop for      200 steps    ****
***************************************************


Dump: Will write Position data of region "all" in XYZ format with stride 1 to "H2O_trajectory.xyz" (append).

Defined regions:
         all:     3 atoms
          qm:     3 atoms
      active:     3 atoms

Active Thermostats:
  (*) Region "all": Type Berendsen, temperature 300.00 K, time constant 10.00 fs, global.


Will write restart file to "h2o_md1.mdrestart" after each step.
Will write energy statistics to "h2o_md1-md-ener.csv" after each step.

The system contains 9 active degrees of freedom (3 active atoms * 3).


            |  Sim. Time |  t_SCF | t_Grad |     Temp |     E_Kin |         E_Pot |         E_Tot |      Cons.Qty |   Drift
       Step |       [fs] |    [s] |    [s] |      [K] | [Hartree] |     [Hartree] |     [Hartree] |     [Hartree] |     [K]
------------|------------|--------|--------|----------|-----------|---------------|---------------|---------------|-----------
          0          0.0      6.5              300.00    0.004275      -76.337564      -76.333289                          
          1          0.5      2.3      1.9     304.00    0.004332      -76.337721      -76.333389      -76.333386      0.00
          2          1.0      2.3      0.5     309.98    0.004417      -76.337817      -76.333399      -76.333389     -0.11
          3          1.5      2.3      0.5     309.47    0.004410      -76.337817      -76.333407      -76.333389     -0.11
          4          2.0      2.3      0.5     303.64    0.004327      -76.337733      -76.333406      -76.333386     -0.00
          5          2.5      2.4      0.5     296.40    0.004224      -76.337624      -76.333400      -76.333382      0.13
          6          3.0      2.3      0.5     292.32    0.004166      -76.337557      -76.333392      -76.333380      0.21
          7          3.5      2.3      0.5     294.05    0.004190      -76.337578      -76.333388      -76.333381      0.19
          8          4.0      2.2      0.5     300.84    0.004287      -76.337679      -76.333392      -76.333384      0.07
          9          4.5      2.3      0.5     309.17    0.004406      -76.337809      -76.333403      -76.333388     -0.08
         10          5.0      2.2      0.5     314.85    0.004487      -76.337905      -76.333418      -76.333392     -0.20
         11          5.5      2.2      0.5     315.06    0.004490      -76.337920      -76.333431      -76.333393     -0.26
         12          6.0      2.3      0.5     309.34    0.004408      -76.337845      -76.333437      -76.333393     -0.24
         13          6.5      2.2      0.5     299.51    0.004268      -76.337703      -76.333435      -76.333391     -0.16
         14          7.0      2.3      0.5     288.82    0.004116      -76.337540      -76.333424      -76.333388     -0.08
         15          7.5      2.2      0.5     280.75    0.004001      -76.337408      -76.333407      -76.333386     -0.01
         16          8.0      2.2      0.5     277.91    0.003960      -76.337351      -76.333390      -76.333386      0.00
         17          8.5      2.4      0.5     281.02    0.004005      -76.337382      -76.333377      -76.333387     -0.04
         18          9.0      2.3      0.5     288.63    0.004113      -76.337485      -76.333372      -76.333390     -0.14
         19          9.5      2.3      0.5     297.50    0.004240      -76.337613      -76.333374      -76.333394     -0.28
         20         10.0      2.2      0.5     303.96    0.004332      -76.337712      -76.333380      -76.333397     -0.40
         21         10.5      2.3      0.5     305.51    0.004354      -76.337739      -76.333385      -76.333398     -0.44
         22         11.0      2.3      0.5     302.07    0.004305      -76.337690      -76.333385      -76.333397     -0.38
         23         11.5      2.3      0.5     296.18    0.004221      -76.337600      -76.333380      -76.333394     -0.28
         24         12.0      2.4      0.5     291.65    0.004156      -76.337527      -76.333371      -76.333391     -0.19
         25         12.5      2.5      0.5     291.51    0.004154      -76.337519      -76.333364      -76.333391     -0.19
         26         13.0      2.3      0.5     296.30    0.004222      -76.337586      -76.333364      -76.333393     -0.26
         27         13.5      2.2      0.5     303.93    0.004331      -76.337701      -76.333370      -76.333397     -0.37
         28         14.0      2.3      0.5     310.96    0.004431      -76.337813      -76.333381      -76.333400     -0.49
         29         14.5      2.2      0.5     314.34    0.004480      -76.337874      -76.333394      -76.333402     -0.57
         30         15.0      2.4      0.5     312.62    0.004455      -76.337859      -76.333404      -76.333403     -0.58
         31         15.5      2.2      0.5     306.33    0.004365      -76.337773      -76.333408      -76.333401     -0.54
         32         16.0      2.2      0.5     297.69    0.004242      -76.337646      -76.333404      -76.333399     -0.47
         33         16.5      2.2      0.5     289.79    0.004130      -76.337524      -76.333394      -76.333397     -0.40
         34         17.0      2.2      0.5     285.46    0.004068      -76.337450      -76.333382      -76.333396     -0.35
         35         17.5      2.2      0.5     286.20    0.004079      -76.337451      -76.333372      -76.333396     -0.36
         36         18.0      2.3      0.5     291.52    0.004154      -76.337522      -76.333368      -76.333398     -0.44
         37         18.5      2.3      0.5     299.01    0.004261      -76.337632      -76.333371      -76.333402     -0.56
         38         19.0      2.3      0.5     305.33    0.004351      -76.337729      -76.333378      -76.333406     -0.69
         39         19.5      2.3      0.5     307.67    0.004385      -76.337770      -76.333386      -76.333408     -0.76
         40         20.0      2.2      0.5     305.14    0.004348      -76.337738      -76.333389      -76.333407     -0.74
         41         20.5      2.3      0.5     299.27    0.004265      -76.337651      -76.333387      -76.333405     -0.66
         42         21.0      2.3      0.5     293.21    0.004178      -76.337557      -76.333379      -76.333402     -0.57
         43         21.5      2.3      0.5     290.13    0.004135      -76.337505      -76.333370      -76.333401     -0.53
         44         22.0      2.3      0.5     291.58    0.004155      -76.337520      -76.333365      -76.333402     -0.56
         45         22.5      2.9      0.5     296.91    0.004231      -76.337596      -76.333364      -76.333404     -0.63
         46         23.0      2.3      0.5     303.83    0.004330      -76.337700      -76.333370      -76.333407     -0.73
         47         23.5      2.3      0.5     309.51    0.004411      -76.337791      -76.333381      -76.333410     -0.84
         48         24.0      2.2      0.5     311.71    0.004442      -76.337833      -76.333391      -76.333412     -0.91
         49         24.5      2.3      0.5     309.51    0.004411      -76.337810      -76.333399      -76.333412     -0.92
         50         25.0      2.3      0.5     303.73    0.004328      -76.337729      -76.333401      -76.333411     -0.88
         51         25.5      2.2      0.5     296.61    0.004227      -76.337623      -76.333396      -76.333409     -0.82
         52         26.0      2.2      0.5     291.01    0.004147      -76.337535      -76.333388      -76.333408     -0.77
         53         26.5      2.2      0.5     289.18    0.004121      -76.337500      -76.333379      -76.333407     -0.75
         54         27.0      2.0      0.5     291.80    0.004158      -76.337532      -76.333374      -76.333408     -0.78
         55         27.5      2.2      0.5     297.58    0.004241      -76.337615      -76.333375      -76.333411     -0.86
         56         28.0      2.3      0.5     303.82    0.004330      -76.337710      -76.333381      -76.333414     -0.98
         57         28.5      2.3      0.5     307.64    0.004384      -76.337773      -76.333389      -76.333416     -1.07
         58         29.0      2.2      0.5     307.27    0.004379      -76.337774      -76.333395      -76.333417     -1.10
         59         29.5      2.3      0.5     302.86    0.004316      -76.337712      -76.333396      -76.333416     -1.06
         60         30.0      2.3      0.5     296.44    0.004224      -76.337616      -76.333392      -76.333414     -0.99
         61         30.5      2.3      0.5     290.84    0.004145      -76.337528      -76.333383      -76.333413     -0.93
         62         31.0      2.3      0.5     288.45    0.004111      -76.337484      -76.333374      -76.333412     -0.91
         63         31.5      2.2      0.5     290.18    0.004135      -76.337502      -76.333367      -76.333412     -0.93
         64         32.0      2.2      0.5     295.23    0.004207      -76.337573      -76.333366      -76.333415     -1.00
         65         32.5      2.2      0.5     301.48    0.004296      -76.337666      -76.333370      -76.333418     -1.11
         66         33.0      2.3      0.5     306.29    0.004365      -76.337742      -76.333377      -76.333421     -1.21
         67         33.5      2.3      0.5     307.61    0.004384      -76.337768      -76.333385      -76.333422     -1.27
         68         34.0      2.3      0.5     304.90    0.004345      -76.337733      -76.333388      -76.333422     -1.26
         69         34.5      2.3      0.5     299.47    0.004268      -76.337654      -76.333386      -76.333420     -1.20
         70         35.0      2.2      0.5     293.94    0.004189      -76.337568      -76.333380      -76.333418     -1.13
         71         35.5      2.3      0.5     291.01    0.004147      -76.337518      -76.333371      -76.333417     -1.08
         72         36.0      2.3      0.5     292.25    0.004165      -76.337530      -76.333366      -76.333417     -1.08
         73         36.5      2.3      0.5     297.35    0.004237      -76.337603      -76.333366      -76.333419     -1.15
         74         37.0      2.2      0.5     304.26    0.004336      -76.337708      -76.333372      -76.333422     -1.27
         75         37.5      2.3      0.5     310.07    0.004419      -76.337802      -76.333383      -76.333426     -1.39
         76         38.0      2.2      0.5     312.26    0.004450      -76.337844      -76.333394      -76.333428     -1.47
         77         38.5      2.3      0.5     309.80    0.004415      -76.337817      -76.333402      -76.333428     -1.48
         78         39.0      2.3      0.5     303.56    0.004326      -76.337729      -76.333403      -76.333427     -1.43
         79         39.5      2.4      0.5     295.88    0.004216      -76.337615      -76.333398      -76.333425     -1.36
         80         40.0      3.3      0.5     289.59    0.004127      -76.337516      -76.333389      -76.333423     -1.30
         81         40.5      2.2      0.6     287.00    0.004090      -76.337468      -76.333378      -76.333422     -1.27
         82         41.0      2.3      0.6     288.93    0.004117      -76.337488      -76.333371      -76.333423     -1.30
         83         41.5      2.3      0.5     294.35    0.004195      -76.337564      -76.333369      -76.333426     -1.40
         84         42.0      2.4      0.5     300.63    0.004284      -76.337658      -76.333374      -76.333430     -1.53
         85         42.5      2.3      0.5     304.76    0.004343      -76.337723      -76.333380      -76.333433     -1.63
         86         43.0      2.2      0.5     304.74    0.004343      -76.337727      -76.333385      -76.333433     -1.67
         87         43.5      2.3      0.5     300.73    0.004286      -76.337670      -76.333384      -76.333432     -1.63
         88         44.0      2.4      0.5     294.92    0.004203      -76.337581      -76.333378      -76.333430     -1.55
         89         44.5      2.3      0.5     290.40    0.004138      -76.337507      -76.333369      -76.333428     -1.48
         90         45.0      2.3      0.5     289.72    0.004129      -76.337489      -76.333360      -76.333427     -1.45
         91         45.5      2.3      0.5     293.70    0.004185      -76.337542      -76.333357      -76.333428     -1.48
         92         46.0      2.3      0.5     301.11    0.004291      -76.337651      -76.333360      -76.333431     -1.58
         93         46.5      2.3      0.5     309.23    0.004407      -76.337777      -76.333371      -76.333435     -1.71
         94         47.0      2.3      0.5     314.98    0.004489      -76.337874      -76.333385      -76.333438     -1.81
         95         47.5      2.3      0.5     316.12    0.004505      -76.337903      -76.333399      -76.333439     -1.87
         96         48.0      2.2      0.5     312.08    0.004447      -76.337855      -76.333407      -76.333439     -1.86
         97         48.5      2.3      0.5     304.26    0.004336      -76.337745      -76.333409      -76.333437     -1.80
         98         49.0      2.4      0.5     295.54    0.004212      -76.337614      -76.333403      -76.333434     -1.70
         99         49.5      2.3      0.5     289.21    0.004121      -76.337514      -76.333392      -76.333432     -1.62
        100         50.0      2.2      0.5     287.61    0.004099      -76.337481      -76.333382      -76.333431     -1.60
        101         50.5      2.3      0.5     290.98    0.004147      -76.337524      -76.333378      -76.333434     -1.68
        102         51.0      2.2      0.5     297.11    0.004234      -76.337614      -76.333380      -76.333438     -1.83
        103         51.5      2.2      0.5     302.49    0.004311      -76.337696      -76.333386      -76.333442     -1.97
        104         52.0      2.3      0.5     304.09    0.004333      -76.337724      -76.333391      -76.333444     -2.03
        105         52.5      2.3      0.5     301.01    0.004290      -76.337680      -76.333391      -76.333443     -2.01
        106         53.0      2.3      0.5     294.88    0.004202      -76.337587      -76.333385      -76.333441     -1.93
        107         53.5      2.3      0.5     288.89    0.004117      -76.337491      -76.333374      -76.333438     -1.84
        108         54.0      2.3      0.5     286.26    0.004079      -76.337441      -76.333362      -76.333437     -1.78
        109         54.5      2.3      0.5     288.73    0.004115      -76.337468      -76.333353      -76.333437     -1.78
        110         55.0      2.3      0.5     295.92    0.004217      -76.337570      -76.333353      -76.333439     -1.86
        111         55.5      2.3      0.5     305.54    0.004354      -76.337715      -76.333361      -76.333443     -2.00
        112         56.0      2.2      0.5     314.25    0.004478      -76.337854      -76.333375      -76.333447     -2.14
        113         56.5      2.3      0.8     318.92    0.004545      -76.337937      -76.333392      -76.333450     -2.24
        114         57.0      2.3      0.5     317.78    0.004529      -76.337935      -76.333407      -76.333451     -2.27
        115         57.5      2.3      0.5     311.13    0.004434      -76.337848      -76.333414      -76.333450     -2.24
        116         58.0      2.3      0.5     301.41    0.004295      -76.337708      -76.333412      -76.333447     -2.14
        117         58.5      2.3      0.5     292.43    0.004167      -76.337571      -76.333404      -76.333444     -2.03
        118         59.0      2.1      0.5     287.79    0.004101      -76.337494      -76.333392      -76.333442     -1.96
        119         59.5      2.3      0.5     289.07    0.004119      -76.337505      -76.333385      -76.333443     -2.00
        120         60.0      2.4      0.5     294.83    0.004202      -76.337587      -76.333386      -76.333447     -2.15
        121         60.5      2.3      0.5     301.30    0.004294      -76.337685      -76.333392      -76.333452     -2.32
        122         61.0      2.4      0.5     304.41    0.004338      -76.337736      -76.333398      -76.333455     -2.43
        123         61.5      2.3      0.5     302.07    0.004305      -76.337704      -76.333399      -76.333455     -2.43
        124         62.0      2.3      0.5     295.17    0.004206      -76.337600      -76.333394      -76.333453     -2.35
        125         62.5      2.3      0.5     286.98    0.004090      -76.337470      -76.333381      -76.333450     -2.23
        126         63.0      2.2      0.5     281.43    0.004011      -76.337375      -76.333364      -76.333447     -2.14
        127         63.5      2.3      0.5     281.40    0.004010      -76.337359      -76.333349      -76.333446     -2.11
        128         64.0      2.3      0.5     287.54    0.004098      -76.337439      -76.333341      -76.333448     -2.16
        129         64.5      2.4      0.5     298.10    0.004248      -76.337591      -76.333343      -76.333451     -2.28
        130         65.0      2.3      0.5     309.64    0.004413      -76.337768      -76.333355      -76.333456     -2.44
        131         65.5      2.3      0.5     318.22    0.004535      -76.337908      -76.333373      -76.333459     -2.58
        132         66.0      2.3      0.5     320.82    0.004572      -76.337962      -76.333390      -76.333462     -2.65
        133         66.5      2.5      0.5     316.61    0.004512      -76.337914      -76.333402      -76.333461     -2.63
        134         67.0      2.4      0.5     307.52    0.004382      -76.337787      -76.333405      -76.333458     -2.52
        135         67.5      2.3      0.5     297.65    0.004242      -76.337640      -76.333399      -76.333454     -2.37
        136         68.0      2.3      0.5     291.58    0.004155      -76.337545      -76.333390      -76.333451     -2.27
        137         68.5      2.5      0.5     291.91    0.004160      -76.337544      -76.333384      -76.333452     -2.30
        138         69.0      2.4      0.5     297.78    0.004243      -76.337631      -76.333387      -76.333456     -2.46
        139         69.5      2.4      0.5     305.21    0.004349      -76.337746      -76.333397      -76.333462     -2.66
        140         70.0      2.3      0.5     309.43    0.004410      -76.337817      -76.333408      -76.333466     -2.80
        141         70.5      2.3      0.5     307.49    0.004382      -76.337796      -76.333414      -76.333466     -2.82
        142         71.0      2.3      0.5     299.75    0.004272      -76.337683      -76.333412      -76.333464     -2.75
        143         71.5      2.3      0.5     289.40    0.004124      -76.337525      -76.333400      -76.333461     -2.63
        144         72.0      2.2      0.5     280.85    0.004002      -76.337385      -76.333383      -76.333458     -2.52
        145         72.5      2.3      0.5     277.71    0.003958      -76.337322      -76.333364      -76.333456     -2.46
        146         73.0      2.3      0.5     281.52    0.004012      -76.337363      -76.333351      -76.333457     -2.48
        147         73.5      2.4      0.5     291.21    0.004150      -76.337498      -76.333348      -76.333460     -2.59
        148         74.0      2.2      0.5     303.58    0.004326      -76.337681      -76.333355      -76.333465     -2.76
        149         74.5      2.2      0.8     314.37    0.004480      -76.337851      -76.333371      -76.333469     -2.93
        150         75.0      2.4      0.6     319.78    0.004557      -76.337946      -76.333389      -76.333473     -3.04
        151         75.5      2.3      0.5     317.97    0.004531      -76.337934      -76.333403      -76.333473     -3.05
        152         76.0      3.1      0.5     310.02    0.004418      -76.337826      -76.333408      -76.333470     -2.96
        153         76.5      2.4      0.5     299.80    0.004272      -76.337676      -76.333403      -76.333466     -2.82
        154         77.0      2.3      0.5     292.41    0.004167      -76.337561      -76.333394      -76.333463     -2.69
        155         77.5      2.3      0.5     291.58    0.004155      -76.337543      -76.333387      -76.333462     -2.68
        156         78.0      2.4      0.5     297.43    0.004239      -76.337628      -76.333389      -76.333466     -2.81
        157         78.5      2.3      0.7     306.26    0.004364      -76.337764      -76.333400      -76.333472     -3.02
        158         79.0      2.5      0.5     312.63    0.004455      -76.337870      -76.333414      -76.333477     -3.20
        159         79.5      2.3      0.5     312.44    0.004452      -76.337878      -76.333425      -76.333479     -3.25
        160         80.0      2.4      0.5     305.02    0.004347      -76.337774      -76.333427      -76.333477     -3.19
        161         80.5      2.2      0.5     293.19    0.004178      -76.337597      -76.333418      -76.333473     -3.06
        162         81.0      2.3      0.5     281.69    0.004014      -76.337415      -76.333401      -76.333469     -2.92
        163         81.5      2.3      0.5     275.05    0.003920      -76.337299      -76.333379      -76.333467     -2.83
        164         82.0      2.3      0.5     275.85    0.003931      -76.337292      -76.333361      -76.333466     -2.82
        165         82.5      2.2      0.5     283.87    0.004045      -76.337397      -76.333352      -76.333469     -2.91
        166         83.0      2.3      0.6     296.24    0.004222      -76.337575      -76.333354      -76.333474     -3.08
        167         83.5      2.3      0.5     308.42    0.004395      -76.337761      -76.333365      -76.333479     -3.27
        168         84.0      2.4      0.5     315.82    0.004501      -76.337882      -76.333381      -76.333483     -3.41
        169         84.5      2.4      0.5     315.66    0.004498      -76.337892      -76.333394      -76.333484     -3.44
        170         85.0      2.3      0.5     308.42    0.004395      -76.337793      -76.333397      -76.333481     -3.34
        171         85.5      2.3      0.5     298.05    0.004247      -76.337638      -76.333391      -76.333476     -3.17
        172         86.0      2.3      0.5     290.32    0.004137      -76.337516      -76.333379      -76.333472     -3.01
        173         86.5      2.2      0.5     289.86    0.004131      -76.337501      -76.333370      -76.333471     -2.97
        174         87.0      2.3      0.5     297.30    0.004237      -76.337609      -76.333372      -76.333475     -3.11
        175         87.5      2.3      0.5     308.76    0.004400      -76.337786      -76.333386      -76.333481     -3.35
        176         88.0      2.3      0.5     318.05    0.004532      -76.337938      -76.333405      -76.333488     -3.56
        177         88.5      2.3      0.5     320.17    0.004563      -76.337986      -76.333423      -76.333490     -3.65
        178         89.0      2.3      0.5     313.74    0.004471      -76.337903      -76.333432      -76.333489     -3.60
        179         89.5      2.3      0.5     301.35    0.004294      -76.337724      -76.333429      -76.333485     -3.47
        180         90.0      2.3      0.5     287.96    0.004104      -76.337520      -76.333416      -76.333481     -3.32
        181         90.5      2.3      0.5     278.62    0.003971      -76.337368      -76.333397      -76.333478     -3.22
        182         91.0      2.0      0.5     276.63    0.003942      -76.337321      -76.333379      -76.333477     -3.19
        183         91.5      2.4      0.5     282.41    0.004025      -76.337392      -76.333368      -76.333479     -3.26
        184         92.0      2.4      0.5     293.55    0.004183      -76.337550      -76.333367      -76.333483     -3.42
        185         92.5      2.5      0.5     305.61    0.004355      -76.337732      -76.333377      -76.333489     -3.61
        186         93.0      3.3      0.5     313.72    0.004471      -76.337862      -76.333392      -76.333493     -3.77
        187         93.5      2.2      0.5     314.50    0.004482      -76.337886      -76.333404      -76.333495     -3.83
        188         94.0      2.4      0.5     307.71    0.004385      -76.337793      -76.333408      -76.333493     -3.76
        189         94.5      2.3      0.5     296.82    0.004230      -76.337631      -76.333401      -76.333488     -3.59
        190         95.0      2.3      0.5     287.70    0.004100      -76.337487      -76.333387      -76.333483     -3.42
        191         95.5      2.5      0.5     285.72    0.004072      -76.337446      -76.333374      -76.333481     -3.35
        192         96.0      2.3      0.5     292.63    0.004170      -76.337541      -76.333371      -76.333484     -3.45
        193         96.5      2.3      0.5     305.27    0.004350      -76.337732      -76.333382      -76.333491     -3.68
        194         97.0      2.3      0.5     317.30    0.004522      -76.337923      -76.333402      -76.333498     -3.92
        195         97.5      2.3      0.5     322.71    0.004599      -76.338021      -76.333422      -76.333501     -4.04
        196         98.0      2.4      0.5     318.90    0.004545      -76.337980      -76.333436      -76.333501     -4.02
        197         98.5      2.3      0.5     307.55    0.004383      -76.337821      -76.333438      -76.333497     -3.90
        198         99.0      2.3      0.5     293.41    0.004181      -76.337609      -76.333428      -76.333492     -3.73
        199         99.5      2.3      0.6     281.99    0.004018      -76.337429      -76.333411      -76.333488     -3.60
        200        100.0      2.0      0.5     277.43    0.003954      -76.337346      -76.333392      -76.333487     -3.54
------------|------------|--------|--------|----------|-----------|---------------|---------------|---------------|-----------
            |  Sim. Time |  t_SCF | t_Grad |     Temp |     E_Kin |         E_Pot |         E_Tot |      Cons.Qty |   Drift
       Step |       [fs] |    [s] |    [s] |      [K] | [Hartree] |     [Hartree] |     [Hartree] |     [Hartree] |     [K]


Finished MD run of 200 steps.


Thermostat Summary:
  (*) Region "all": Injected 0.25 kJ/mol of energy into the system (equivalent to 6.64 K).


>>> Timing data >>>
    MD loop was running for 571.310 seconds ( 0:09:31.310 h:m:s).
    Performance: 2.857 seconds/step, 0.6301 ps/hour.
    Time spent within the MD module (overhead): 1.605 seconds (0.2809 % of total time).
<<< Timing data <<<


Finished MD loop.


###############################################################
########        Finished Executing Input Script        ########
###############################################################


    5 function calls, 0 operator calls, 18 evaluated expressions.


Timings for individual modules during the MD run:

GTO integral calculation        ...       65.684 sec (=   1.095 min)  13.1 %
SCF iterations                  ...      336.859 sec (=   5.614 min)  67.4 %
SCF Gradient evaluation         ...       97.595 sec (=   1.627 min)  19.5 %
Self time inside of MD module   ...        3.717 sec (=   0.062 min)   0.7 %

Sum of individual times         ...      503.854 sec (=   8.398 min)

Total wall time of MD module    ...      573.335 sec (=   9.556 min)
             --> "dark time"    ...       69.481 sec (=   1.158 min)  12.1 %

( The "dark time" is spent in the ORCA-internal routines for energy and gradient calculation,
  but not inside of the sub-programs which do so. It contains operating system overhead for
  spawning new processes in each MD step and some file IO time. )



    #########################################################
    ####    ORCA ab initio Molecular Dynamics leaving    ####
    ####           Martin Brehm, 2016 - 2022             ####
    ####        https://brehm-research.de/orcamd         ####
    #########################################################


Timings for individual modules:

Sum of individual times         ...      574.430 sec (=   9.574 min)
Molecular Dynamics run          ...      574.430 sec (=   9.574 min) 100.0 %
                             ****ORCA TERMINATED NORMALLY****
TOTAL RUN TIME: 0 days 0 hours 9 minutes 36 seconds 635 msec
